# vtk DataFile Version 2.0
test
ASCII

DATASET UNSTRUCTURED_GRID
POINTS 10442 float
-0.000000 0.000000 9.230014
0.500000 0.000000 9.230014
0.492404 0.086824 9.230014
0.469846 0.171010 9.230014
0.433013 0.250000 9.230014
0.383022 0.321394 9.230014
0.321394 0.383022 9.230014
0.250000 0.433013 9.230014
0.171010 0.469846 9.230014
0.086824 0.492404 9.230014
0.000000 0.500000 9.230014
-0.086824 0.492404 9.230014
-0.171010 0.469846 9.230014
-0.250000 0.433013 9.230014
-0.321394 0.383022 9.230014
-0.383022 0.321394 9.230014
-0.433013 0.250000 9.230014
-0.469846 0.171010 9.230014
-0.492404 0.086824 9.230014
-0.500000 0.000000 9.230014
-0.492404 -0.086824 9.230014
-0.469846 -0.171010 9.230014
-0.433013 -0.250000 9.230014
-0.383022 -0.321394 9.230014
-0.321394 -0.383022 9.230014
-0.250000 -0.433013 9.230014
-0.171010 -0.469846 9.230014
-0.086824 -0.492404 9.230014
-0.000000 -0.500000 9.230014
0.086824 -0.492404 9.230014
0.171010 -0.469846 9.230014
0.250000 -0.433013 9.230014
0.321394 -0.383022 9.230014
0.383022 -0.321394 9.230014
0.433013 -0.250000 9.230014
0.469846 -0.171010 9.230014
0.492404 -0.086824 9.230014
-0.000000 0.000000 9.230014
0.500000 -0.000000 9.230014
0.492404 0.086824 9.230014
0.469846 0.171010 9.230014
0.433013 0.250000 9.230014
0.383022 0.321394 9.230014
0.321394 0.383022 9.230014
0.250000 0.433013 9.230014
0.171010 0.469846 9.230014
0.086824 0.492404 9.230014
0.000000 0.500000 9.230014
-0.086824 0.492404 9.230014
-0.171010 0.469846 9.230014
-0.250000 0.433013 9.230014
-0.321394 0.383022 9.230014
-0.383022 0.321394 9.230014
-0.433013 0.250000 9.230014
-0.469846 0.171010 9.230014
-0.492404 0.086824 9.230014
-0.500000 0.000000 9.230014
-0.492404 -0.086824 9.230014
-0.469846 -0.171010 9.230014
-0.433013 -0.250000 9.230014
-0.383022 -0.321394 9.230014
-0.321394 -0.383022 9.230014
-0.250000 -0.433013 9.230014
-0.171010 -0.469846 9.230014
-0.086824 -0.492404 9.230014
-0.000000 -0.500000 9.230014
0.086824 -0.492404 9.230014
0.171010 -0.469846 9.230014
0.250000 -0.433013 9.230014
0.321394 -0.383022 9.230014
0.383022 -0.321394 9.230014
0.433013 -0.250000 9.230014
0.469846 -0.171010 9.230014
0.492404 -0.086824 9.230014
0.500000 0.000000 0.249752
0.482963 0.129410 0.249761
0.433013 0.250000 0.249786
0.353553 0.353553 0.249825
0.250000 0.433013 0.249876
0.129410 0.482963 0.249936
-0.000000 0.500000 0.250000
-0.129410 0.482963 0.250064
-0.250000 0.433013 0.250124
-0.353553 0.353553 0.250175
-0.433013 0.250000 0.250214
-0.482963 0.129410 0.250239
-0.500000 -0.000000 0.250248
-0.482963 -0.129410 0.250239
-0.433013 -0.250000 0.250214
-0.353553 -0.353553 0.250175
-0.250000 -0.433013 0.250124
-0.129410 -0.482963 0.250064
-0.000000 -0.500000 0.250000
0.129410 -0.482963 0.249936
0.250000 -0.433013 0.249876
0.353553 -0.353553 0.249825
0.433013 -0.250000 0.249786
0.482963 -0.129410 0.249761
0.500005 0.000000 0.259410
0.482968 0.129410 0.259427
0.433017 0.250000 0.259476
0.353558 0.353553 0.259555
0.250005 0.433013 0.259658
0.129414 0.482963 0.259777
0.000005 0.500000 0.259905
-0.129405 0.482963 0.260033
-0.249995 0.433013 0.260153
-0.353548 0.353553 0.260255
-0.433008 0.250000 0.260334
-0.482958 0.129410 0.260383
-0.499995 -0.000000 0.260400
-0.482958 -0.129410 0.260383
-0.433008 -0.250000 0.260334
-0.353548 -0.353553 0.260255
-0.249995 -0.433013 0.260153
-0.129405 -0.482963 0.260033
0.000005 -0.500000 0.259905
0.129414 -0.482963 0.259777
0.250005 -0.433013 0.259658
0.353558 -0.353553 0.259555
0.433017 -0.250000 0.259476
0.482968 -0.129410 0.259427
0.500019 0.000000 0.268820
0.482982 0.129410 0.268854
0.433031 0.250000 0.268953
0.353572 0.353553 0.269110
0.250019 0.433013 0.269315
0.129429 0.482963 0.269554
0.000020 0.500000 0.269810
-0.129390 0.482963 0.270066
-0.249980 0.433013 0.270305
-0.353533 0.353553 0.270510
-0.432992 0.250000 0.270668
-0.482942 0.129410 0.270767
-0.499979 -0.000000 0.270800
-0.482942 -0.129410 0.270767
-0.432992 -0.250000 0.270668
-0.353533 -0.353553 0.270510
-0.249980 -0.433013 0.270305
-0.129390 -0.482963 0.270066
0.000020 -0.500000 0.269810
0.129429 -0.482963 0.269554
0.250019 -0.433013 0.269315
0.353572 -0.353553 0.269110
0.433031 -0.250000 0.268953
0.482982 -0.129410 0.268854
0.500042 0.000000 0.278230
0.483005 0.129410 0.278281
0.433055 0.250000 0.278429
0.353596 0.353553 0.278665
0.250043 0.433013 0.278973
0.129453 0.482963 0.279331
0.000044 0.500000 0.279715
-0.129365 0.482963 0.280100
-0.249955 0.433013 0.280458
-0.353508 0.353553 0.280765
-0.432967 0.250000 0.281001
-0.482917 0.129410 0.281150
-0.499954 -0.000000 0.281200
-0.482917 -0.129410 0.281150
-0.432967 -0.250000 0.281001
-0.353508 -0.353553 0.280765
-0.249955 -0.433013 0.280458
-0.129365 -0.482963 0.280100
0.000044 -0.500000 0.279715
0.129453 -0.482963 0.279331
0.250043 -0.433013 0.278973
0.353596 -0.353553 0.278665
0.433055 -0.250000 0.278429
0.483005 -0.129410 0.278281
0.500075 0.000000 0.287640
0.483038 0.129410 0.287708
0.433088 0.250000 0.287905
0.353629 0.353553 0.288220
0.250076 0.433013 0.288630
0.129487 0.482963 0.289108
0.000078 0.500000 0.289620
-0.129330 0.482963 0.290133
-0.249920 0.433013 0.290610
-0.353472 0.353553 0.291021
-0.432931 0.250000 0.291335
-0.482881 0.129410 0.291533
-0.499918 -0.000000 0.291601
-0.482881 -0.129410 0.291533
-0.432931 -0.250000 0.291335
-0.353472 -0.353553 0.291021
-0.249920 -0.433013 0.290610
-0.129330 -0.482963 0.290133
0.000078 -0.500000 0.289620
0.129487 -0.482963 0.289108
0.250076 -0.433013 0.288630
0.353629 -0.353553 0.288220
0.433088 -0.250000 0.287905
0.483038 -0.129410 0.287708
0.500116 0.000000 0.297050
0.483080 0.129410 0.297134
0.433130 0.250000 0.297382
0.353672 0.353553 0.297775
0.250120 0.433013 0.298288
0.129531 0.482963 0.298885
0.000123 0.500000 0.299525
-0.129285 0.482963 0.300166
-0.249874 0.433013 0.300763
-0.353426 0.353553 0.301276
-0.432885 0.250000 0.301669
-0.482834 0.129410 0.301916
-0.499871 -0.000000 0.302001
-0.482834 -0.129410 0.301916
-0.432885 -0.250000 0.301669
-0.353426 -0.353553 0.301276
-0.249874 -0.433013 0.300763
-0.129285 -0.482963 0.300166
0.000123 -0.500000 0.299525
0.129531 -0.482963 0.298885
0.250120 -0.433013 0.298288
0.353672 -0.353553 0.297775
0.433130 -0.250000 0.297382
0.483080 -0.129410 0.297134
0.500168 0.000000 0.306460
0.483131 0.129410 0.306561
0.433182 0.250000 0.306858
0.353724 0.353553 0.307330
0.250172 0.433013 0.307945
0.129584 0.482963 0.308662
0.000177 0.500000 0.309430
-0.129231 0.482963 0.310199
-0.249819 0.433013 0.310915
-0.353371 0.353553 0.311531
-0.432829 0.250000 0.312003
-0.482778 0.129410 0.312299
-0.499815 -0.000000 0.312401
-0.482778 -0.129410 0.312299
-0.432829 -0.250000 0.312003
-0.353371 -0.353553 0.311531
-0.249819 -0.433013 0.310915
-0.129231 -0.482963 0.310199
0.000177 -0.500000 0.309430
0.129584 -0.482963 0.308662
0.250172 -0.433013 0.307945
0.353724 -0.353553 0.307330
0.433182 -0.250000 0.306858
0.483131 -0.129410 0.306561
0.500228 0.000000 0.315870
0.483192 0.129410 0.315988
0.433243 0.250000 0.316334
0.353785 0.353553 0.316885
0.250234 0.433013 0.317603
0.129647 0.482963 0.318438
0.000240 0.500000 0.319335
-0.129166 0.482963 0.320232
-0.249754 0.433013 0.321068
-0.353305 0.353553 0.321786
-0.432762 0.250000 0.322336
-0.482711 0.129410 0.322683
-0.499748 -0.000000 0.322801
-0.482711 -0.129410 0.322683
-0.432762 -0.250000 0.322336
-0.353305 -0.353553 0.321786
-0.249754 -0.433013 0.321068
-0.129166 -0.482963 0.320232
0.000240 -0.500000 0.319335
0.129647 -0.482963 0.318438
0.250234 -0.433013 0.317603
0.353785 -0.353553 0.316885
0.433243 -0.250000 0.316334
0.483192 -0.129410 0.315988
0.500298 0.000000 0.325280
0.483262 0.129410 0.325415
0.433313 0.250000 0.325810
0.353856 0.353553 0.326440
0.250306 0.433013 0.327260
0.129719 0.482963 0.328215
0.000314 0.500000 0.329240
-0.129092 0.482963 0.330265
-0.249678 0.433013 0.331220
-0.353228 0.353553 0.332040
-0.432685 0.250000 0.332670
-0.482634 0.129410 0.333066
-0.499670 -0.000000 0.333200
-0.482634 -0.129410 0.333066
-0.432685 -0.250000 0.332670
-0.353228 -0.353553 0.332040
-0.249678 -0.433013 0.331220
-0.129092 -0.482963 0.330265
0.000314 -0.500000 0.329240
0.129719 -0.482963 0.328215
0.250306 -0.433013 0.327260
0.353856 -0.353553 0.326440
0.433313 -0.250000 0.325810
0.483262 -0.129410 0.325415
0.500377 0.000000 0.334689
0.483341 0.129410 0.334841
0.433393 0.250000 0.335286
0.353937 0.353553 0.335994
0.250387 0.433013 0.336917
0.129802 0.482963 0.337992
0.000397 0.500000 0.339145
-0.129007 0.482963 0.340298
-0.249593 0.433013 0.341373
-0.353142 0.353553 0.342295
-0.432598 0.250000 0.343003
-0.482547 0.129410 0.343448
-0.499583 -0.000000 0.343600
-0.482547 -0.129410 0.343448
-0.432598 -0.250000 0.343003
-0.353142 -0.353553 0.342295
-0.249593 -0.433013 0.341373
-0.129007 -0.482963 0.340298
0.000397 -0.500000 0.339145
0.129802 -0.482963 0.337992
0.250387 -0.433013 0.336917
0.353937 -0.353553 0.335994
0.433393 -0.250000 0.335286
0.483341 -0.129410 0.334841
0.500466 0.000000 0.344099
0.483430 0.129410 0.344268
0.433482 0.250000 0.344762
0.354026 0.353553 0.345549
0.250478 0.433013 0.346574
0.129894 0.482963 0.347768
0.000490 0.500000 0.349050
-0.128913 0.482963 0.350331
-0.249497 0.433013 0.351525
-0.353046 0.353553 0.352550
-0.432501 0.250000 0.353337
-0.482449 0.129410 0.353831
-0.499485 -0.000000 0.354000
-0.482449 -0.129410 0.353831
-0.432501 -0.250000 0.353337
-0.353046 -0.353553 0.352550
-0.249497 -0.433013 0.351525
-0.128913 -0.482963 0.350331
0.000490 -0.500000 0.349050
0.129894 -0.482963 0.347768
0.250478 -0.433013 0.346574
0.354026 -0.353553 0.345549
0.433482 -0.250000 0.344762
0.483430 -0.129410 0.344268
0.500564 0.000000 0.353509
0.483528 0.129410 0.353694
0.433580 0.250000 0.354238
0.354126 0.353553 0.355104
0.250578 0.433013 0.356231
0.129995 0.482963 0.357545
0.000593 0.500000 0.358954
-0.128809 0.482963 0.360364
-0.249392 0.433013 0.361677
-0.352939 0.353553 0.362805
-0.432394 0.250000 0.363670
-0.482341 0.129410 0.364214
-0.499377 -0.000000 0.364400
-0.482341 -0.129410 0.364214
-0.432394 -0.250000 0.363670
-0.352939 -0.353553 0.362805
[...]
CELL_DATA 20112
COLOR_SCALARS type 4
0.500000 0.500000 0.500000 0.500000
0.500000 0.500000 0.500000 0.500000
0.500000 0.500000 0.500000 0.500000
0.500000 0.500000 0.500000 0.500000
0.500000 0.500000 0.500000 0.500000
0.500000 0.500000 0.500000 0.500000
0.500000 0.500000 0.500000 0.500000
0.500000 0.500000 0.500000 0.500000
0.500000 0.500000 0.500000 0.500000
0.500000 0.500000 0.500000 0.500000
0.500000 0.500000 0.500000 0.500000
0.500000 0.500000 0.500000 0.500000
0.500000 0.500000 0.500000 0.500000
0.500000 0.500000 0.500000 0.500000
0.500000 0.500000 0.500000 0.500000
0.500000 0.500000 0.500000 0.500000
0.500000 0.500000 0.500000 0.500000
0.500000 0.500000 0.500000 0.500000
0.500000 0.500000 0.500000 0.500000
0.500000 0.500000 0.500000 0.500000
0.500000 0.500000 0.500000 0.500000
0.500000 0.500000 0.500000 0.500000
0.500000 0.500000 0.500000 0.500000
0.500000 0.500000 0.500000 0.500000
0.500000 0.500000 0.500000 0.500000
0.500000 0.500000 0.500000 0.500000
0.500000 0.500000 0.500000 0.500000
0.500000 0.500000 0.500000 0.500000
0.500000 0.500000 0.500000 0.500000
0.500000 0.500000 0.500000 0.500000
0.500000 0.500000 0.500000 0.500000
0.500000 0.500000 0.500000 0.500000
0.500000 0.500000 0.500000 0.500000
0.500000 0.500000 0.500000 0.500000
0.500000 0.500000 0.500000 0.500000
0.500000 0.500000 0.500000 0.500000
0.500000 0.500000 0.500000 0.500000
0.500000 0.500000 0.500000 0.500000
0.500000 0.500000 0.500000 0.500000
0.500000 0.500000 0.500000 0.500000
0.500000 0.500000 0.500000 0.500000
0.500000 0.500000 0.500000 0.500000
0.500000 0.500000 0.500000 0.500000
0.500000 0.500000 0.500000 0.500000
0.500000 0.500000 0.500000 0.500000
0.500000 0.500000 0.500000 0.500000
0.500000 0.500000 0.500000 0.500000
0.500000 0.500000 0.500000 0.500000
0.500000 0.500000 0.500000 0.500000
0.500000 0.500000 0.500000 0.500000
0.500000 0.500000 0.500000 0.500000
0.500000 0.500000 0.500000 0.500000
0.500000 0.500000 0.500000 0.500000
0.500000 0.500000 0.500000 0.500000
0.500000 0.500000 0.500000 0.500000
0.500000 0.500000 0.500000 0.500000
0.500000 0.500000 0.500000 0.500000
0.500000 0.500000 0.500000 0.500000
0.500000 0.500000 0.500000 0.500000
0.500000 0.500000 0.500000 0.500000
0.500000 0.500000 0.500000 0.500000
0.500000 0.500000 0.500000 0.500000
0.500000 0.500000 0.500000 0.500000
0.500000 0.500000 0.500000 0.500000
0.500000 0.500000 0.500000 0.500000
0.500000 0.500000 0.500000 0.500000
0.500000 0.500000 0.500000 0.500000
0.500000 0.500000 0.500000 0.500000
0.500000 0.500000 0.500000 0.500000
0.500000 0.500000 0.500000 0.500000
0.500000 0.500000 0.500000 0.500000
0.500000 0.500000 0.500000 0.500000
0.500000 0.500000 0.500000 0.500000
0.500000 0.500000 0.500000 0.500000
0.500000 0.500000 0.500000 0.500000
0.500000 0.500000 0.500000 0.500000
0.500000 0.500000 0.500000 0.500000
0.500000 0.500000 0.500000 0.500000
0.500000 0.500000 0.500000 0.500000
0.500000 0.500000 0.500000 0.500000
0.500000 0.500000 0.500000 0.500000
0.500000 0.500000 0.500000 0.500000
0.500000 0.500000 0.500000 0.500000
0.500000 0.500000 0.500000 0.500000
0.500000 0.500000 0.500000 0.500000
0.500000 0.500000 0.500000 0.500000
0.500000 0.500000 0.500000 0.500000
0.500000 0.500000 0.500000 0.500000
0.500000 0.500000 0.500000 0.500000
0.500000 0.500000 0.500000 0.500000
0.500000 0.500000 0.500000 0.500000
0.500000 0.500000 0.500000 0.500000
0.500000 0.500000 0.500000 0.500000
0.500000 0.500000 0.500000 0.500000
0.500000 0.500000 0.500000 0.500000
0.500000 0.500000 0.500000 0.500000
0.500000 0.500000 0.500000 0.500000
0.500000 0.500000 0.500000 0.500000
0.500000 0.500000 0.500000 0.500000
0.500000 0.500000 0.500000 0.500000
0.500000 0.500000 0.500000 0.500000
0.500000 0.500000 0.500000 0.500000
0.500000 0.500000 0.500000 0.500000
0.500000 0.500000 0.500000 0.500000
0.500000 0.500000 0.500000 0.500000
0.500000 0.500000 0.500000 0.500000
0.500000 0.500000 0.500000 0.500000
0.500000 0.500000 0.500000 0.500000
0.500000 0.500000 0.500000 0.500000
0.500000 0.500000 0.500000 0.500000
0.500000 0.500000 0.500000 0.500000
0.500000 0.500000 0.500000 0.500000
0.500000 0.500000 0.500000 0.500000
0.500000 0.500000 0.500000 0.500000
0.500000 0.500000 0.500000 0.500000
0.500000 0.500000 0.500000 0.500000
0.500000 0.500000 0.500000 0.500000
0.500000 0.500000 0.500000 0.500000
0.500000 0.500000 0.500000 0.500000
0.500000 0.500000 0.500000 0.500000
0.500000 0.500000 0.500000 0.500000
0.500000 0.500000 0.500000 0.500000
0.500000 0.500000 0.500000 0.500000
0.500000 0.500000 0.500000 0.500000
0.500000 0.500000 0.500000 0.500000
0.500000 0.500000 0.500000 0.500000
0.500000 0.500000 0.500000 0.500000
0.500000 0.500000 0.500000 0.500000
0.500000 0.500000 0.500000 0.500000
0.500000 0.500000 0.500000 0.500000
0.500000 0.500000 0.500000 0.500000
0.500000 0.500000 0.500000 0.500000
0.500000 0.500000 0.500000 0.500000
0.500000 0.500000 0.500000 0.500000
0.500000 0.500000 0.500000 0.500000
0.500000 0.500000 0.500000 0.500000
0.500000 0.500000 0.500000 0.500000
0.500000 0.500000 0.500000 0.500000
0.500000 0.500000 0.500000 0.500000
0.500000 0.500000 0.500000 0.500000
0.500000 0.500000 0.500000 0.500000
0.500000 0.500000 0.500000 0.500000
0.500000 0.500000 0.500000 0.500000
0.500000 0.500000 0.500000 0.500000
1.000000 0.400000 0.700000 1.000000
1.000000 0.400000 0.700000 1.000000
1.000000 0.400000 0.700000 1.000000
1.000000 0.400000 0.700000 1.000000
1.000000 0.400000 0.700000 1.000000
1.000000 0.400000 0.700000 1.000000
1.000000 0.400000 0.700000 1.000000
1.000000 0.400000 0.700000 1.000000
1.000000 0.400000 0.700000 1.000000
1.000000 0.400000 0.700000 1.000000
1.000000 0.400000 0.700000 1.000000
1.000000 0.400000 0.700000 1.000000
1.000000 0.400000 0.700000 1.000000
1.000000 0.400000 0.700000 1.000000
1.000000 0.400000 0.700000 1.000000
1.000000 0.400000 0.700000 1.000000
1.000000 0.400000 0.700000 1.000000
1.000000 0.400000 0.700000 1.000000
1.000000 0.400000 0.700000 1.000000
1.000000 0.400000 0.700000 1.000000
1.000000 0.400000 0.700000 1.000000
1.000000 0.400000 0.700000 1.000000
1.000000 0.400000 0.700000 1.000000
1.000000 0.400000 0.700000 1.000000
1.000000 0.400000 0.700000 1.000000
1.000000 0.400000 0.700000 1.000000
1.000000 0.400000 0.700000 1.000000
1.000000 0.400000 0.700000 1.000000
1.000000 0.400000 0.700000 1.000000
1.000000 0.400000 0.700000 1.000000
1.000000 0.400000 0.700000 1.000000
1.000000 0.400000 0.700000 1.000000
1.000000 0.400000 0.700000 1.000000
1.000000 0.400000 0.700000 1.000000
1.000000 0.400000 0.700000 1.000000
1.000000 0.400000 0.700000 1.000000
1.000000 0.400000 0.700000 1.000000
1.000000 0.400000 0.700000 1.000000
1.000000 0.400000 0.700000 1.000000
1.000000 0.400000 0.700000 1.000000
1.000000 0.400000 0.700000 1.000000
1.000000 0.400000 0.700000 1.000000
1.000000 0.400000 0.700000 1.000000
1.000000 0.400000 0.700000 1.000000
1.000000 0.400000 0.700000 1.000000
1.000000 0.400000 0.700000 1.000000
1.000000 0.400000 0.700000 1.000000
1.000000 0.400000 0.700000 1.000000
1.000000 0.400000 0.700000 1.000000
1.000000 0.400000 0.700000 1.000000
1.000000 0.400000 0.700000 1.000000
1.000000 0.400000 0.700000 1.000000
1.000000 0.400000 0.700000 1.000000
1.000000 0.400000 0.700000 1.000000
1.000000 0.400000 0.700000 1.000000
1.000000 0.400000 0.700000 1.000000
1.000000 0.400000 0.700000 1.000000
1.000000 0.400000 0.700000 1.000000
1.000000 0.400000 0.700000 1.000000
1.000000 0.400000 0.700000 1.000000
1.000000 0.400000 0.700000 1.000000
1.000000 0.400000 0.700000 1.000000
1.000000 0.400000 0.700000 1.000000
1.000000 0.400000 0.700000 1.000000
1.000000 0.400000 0.700000 1.000000
1.000000 0.400000 0.700000 1.000000
1.000000 0.400000 0.700000 1.000000
1.000000 0.400000 0.700000 1.000000
1.000000 0.400000 0.700000 1.000000
1.000000 0.400000 0.700000 1.000000
1.000000 0.400000 0.700000 1.000000
1.000000 0.400000 0.700000 1.000000
1.000000 0.400000 0.700000 1.000000
1.000000 0.400000 0.700000 1.000000
1.000000 0.400000 0.700000 1.000000
1.000000 0.400000 0.700000 1.000000
1.000000 0.400000 0.700000 1.000000
1.000000 0.400000 0.700000 1.000000
1.000000 0.400000 0.700000 1.000000
1.000000 0.400000 0.700000 1.000000
1.000000 0.400000 0.700000 1.000000
1.000000 0.400000 0.700000 1.000000
1.000000 0.400000 0.700000 1.000000
1.000000 0.400000 0.700000 1.000000
1.000000 0.400000 0.700000 1.000000
1.000000 0.400000 0.700000 1.000000
1.000000 0.400000 0.700000 1.000000
1.000000 0.400000 0.700000 1.000000
1.000000 0.400000 0.700000 1.000000
1.000000 0.400000 0.700000 1.000000
1.000000 0.400000 0.700000 1.000000
1.000000 0.400000 0.700000 1.000000
1.000000 0.400000 0.700000 1.000000
1.000000 0.400000 0.700000 1.000000
1.000000 0.400000 0.700000 1.000000
1.000000 0.400000 0.700000 1.000000
1.000000 0.400000 0.700000 1.000000
1.000000 0.400000 0.700000 1.000000
1.000000 0.400000 0.700000 1.000000
1.000000 0.400000 0.700000 1.000000
1.000000 0.400000 0.700000 1.000000
1.000000 0.400000 0.700000 1.000000
1.000000 0.400000 0.700000 1.000000
1.000000 0.400000 0.700000 1.000000
1.000000 0.400000 0.700000 1.000000
1.000000 0.400000 0.700000 1.000000
1.000000 0.400000 0.700000 1.000000
1.000000 0.400000 0.700000 1.000000
1.000000 0.400000 0.700000 1.000000
1.000000 0.400000 0.700000 1.000000
1.000000 0.400000 0.700000 1.000000
1.000000 0.400000 0.700000 1.000000
1.000000 0.400000 0.700000 1.000000
1.000000 0.400000 0.700000 1.000000
1.000000 0.400000 0.700000 1.000000
1.000000 0.400000 0.700000 1.000000
1.000000 0.400000 0.700000 1.000000
1.000000 0.400000 0.700000 1.000000
1.000000 0.400000 0.700000 1.000000
1.000000 0.400000 0.700000 1.000000
1.000000 0.400000 0.700000 1.000000
1.000000 0.400000 0.700000 1.000000
1.000000 0.400000 0.700000 1.000000
1.000000 0.400000 0.700000 1.000000
1.000000 0.400000 0.700000 1.000000
1.000000 0.400000 0.700000 1.000000
1.000000 0.400000 0.700000 1.000000
1.000000 0.400000 0.700000 1.000000
1.000000 0.400000 0.700000 1.000000
1.000000 0.400000 0.700000 1.000000
1.000000 0.400000 0.700000 1.000000
1.000000 0.400000 0.700000 1.000000
1.000000 0.400000 0.700000 1.000000
1.000000 0.400000 0.700000 1.000000
1.000000 0.400000 0.700000 1.000000
1.000000 0.400000 0.700000 1.000000
1.000000 0.400000 0.700000 1.000000
1.000000 0.400000 0.700000 1.000000
1.000000 0.400000 0.700000 1.000000
1.000000 0.400000 0.700000 1.000000
1.000000 0.400000 0.700000 1.000000
1.000000 0.400000 0.700000 1.000000
1.000000 0.400000 0.700000 1.000000
1.000000 0.400000 0.700000 1.000000
1.000000 0.400000 0.700000 1.000000
1.000000 0.400000 0.700000 1.000000
1.000000 0.400000 0.700000 1.000000
1.000000 0.400000 0.700000 1.000000
1.000000 0.400000 0.700000 1.000000
1.000000 0.400000 0.700000 1.000000
1.000000 0.400000 0.700000 1.000000
1.000000 0.400000 0.700000 1.000000
1.000000 0.400000 0.700000 1.000000
1.000000 0.400000 0.700000 1.000000
1.000000 0.400000 0.700000 1.000000
1.000000 0.400000 0.700000 1.000000
1.000000 0.400000 0.700000 1.000000
1.000000 0.400000 0.700000 1.000000
1.000000 0.400000 0.700000 1.000000
1.000000 0.400000 0.700000 1.000000
1.000000 0.400000 0.700000 1.000000
1.000000 0.400000 0.700000 1.000000
1.000000 0.400000 0.700000 1.000000
1.000000 0.400000 0.700000 1.000000
1.000000 0.400000 0.700000 1.000000
1.000000 0.400000 0.700000 1.000000
1.000000 0.400000 0.700000 1.000000
1.000000 0.400000 0.700000 1.000000
1.000000 0.400000 0.700000 1.000000
1.000000 0.400000 0.700000 1.000000
1.000000 0.400000 0.700000 1.000000
1.000000 0.400000 0.700000 1.000000
1.000000 0.400000 0.700000 1.000000
1.000000 0.400000 0.700000 1.000000
1.000000 0.400000 0.700000 1.000000
1.000000 0.400000 0.700000 1.000000
1.000000 0.400000 0.700000 1.000000
1.000000 0.400000 0.700000 1.000000
1.000000 0.400000 0.700000 1.000000
1.000000 0.400000 0.700000 1.000000
1.000000 0.400000 0.700000 1.000000
1.000000 0.400000 0.700000 1.000000
1.000000 0.400000 0.700000 1.000000
1.000000 0.400000 0.700000 1.000000
1.000000 0.400000 0.700000 1.000000
1.000000 0.400000 0.700000 1.000000
1.000000 0.400000 0.700000 1.000000
1.000000 0.400000 0.700000 1.000000
1.000000 0.400000 0.700000 1.000000
1.000000 0.400000 0.700000 1.000000
1.000000 0.400000 0.700000 1.000000
1.000000 0.400000 0.700000 1.000000
1.000000 0.400000 0.700000 1.000000
1.000000 0.400000 0.700000 1.000000
1.000000 0.400000 0.700000 1.000000
1.000000 0.400000 0.700000 1.000000
1.000000 0.400000 0.700000 1.000000
1.000000 0.400000 0.700000 1.000000
1.000000 0.400000 0.700000 1.000000
1.000000 0.400000 0.700000 1.000000
1.000000 0.400000 0.700000 1.000000
1.000000 0.400000 0.700000 1.000000
1.000000 0.400000 0.700000 1.000000
1.000000 0.400000 0.700000 1.000000
1.000000 0.400000 0.700000 1.000000
1.000000 0.400000 0.700000 1.000000
1.000000 0.400000 0.700000 1.000000
1.000000 0.400000 0.700000 1.000000
1.000000 0.400000 0.700000 1.000000
1.000000 0.400000 0.700000 1.000000
1.000000 0.400000 0.700000 1.000000
1.000000 0.400000 0.700000 1.000000
1.000000 0.400000 0.700000 1.000000
1.000000 0.400000 0.700000 1.000000
1.000000 0.400000 0.700000 1.000000
1.000000 0.400000 0.700000 1.000000
1.000000 0.400000 0.700000 1.000000
1.000000 0.400000 0.700000 1.000000
1.000000 0.400000 0.700000 1.000000
1.000000 0.400000 0.700000 1.000000
1.000000 0.400000 0.700000 1.000000
1.000000 0.400000 0.700000 1.000000
1.000000 0.400000 0.700000 1.000000
1.000000 0.400000 0.700000 1.000000
1.000000 0.400000 0.700000 1.000000
1.000000 0.400000 0.700000 1.000000
1.000000 0.400000 0.700000 1.000000
1.000000 0.400000 0.700000 1.000000
1.000000 0.400000 0.700000 1.000000
1.000000 0.400000 0.700000 1.000000
1.000000 0.400000 0.700000 1.000000
1.000000 0.400000 0.700000 1.000000
1.000000 0.400000 0.700000 1.000000
1.000000 0.400000 0.700000 1.000000
1.000000 0.400000 0.700000 1.000000
1.000000 0.400000 0.700000 1.000000
1.000000 0.400000 0.700000 1.000000
1.000000 0.400000 0.700000 1.000000
1.000000 0.400000 0.700000 1.000000
1.000000 0.400000 0.700000 1.000000
1.000000 0.400000 0.700000 1.000000
1.000000 0.400000 0.700000 1.000000
1.000000 0.400000 0.700000 1.000000
1.000000 0.400000 0.700000 1.000000
1.000000 0.400000 0.700000 1.000000
1.000000 0.400000 0.700000 1.000000
1.000000 0.400000 0.700000 1.000000
1.000000 0.400000 0.700000 1.000000
1.000000 0.400000 0.700000 1.000000
1.000000 0.400000 0.700000 1.000000
1.000000 0.400000 0.700000 1.000000
1.000000 0.400000 0.700000 1.000000
1.000000 0.400000 0.700000 1.000000
1.000000 0.400000 0.700000 1.000000
1.000000 0.400000 0.700000 1.000000
1.000000 0.400000 0.700000 1.000000
1.000000 0.400000 0.700000 1.000000
1.000000 0.400000 0.700000 1.000000
1.000000 0.400000 0.700000 1.000000
1.000000 0.400000 0.700000 1.000000
1.000000 0.400000 0.700000 1.000000
1.000000 0.400000 0.700000 1.000000
1.000000 0.400000 0.700000 1.000000
1.000000 0.400000 0.700000 1.000000
1.000000 0.400000 0.700000 1.000000
1.000000 0.400000 0.700000 1.000000
1.000000 0.400000 0.700000 1.000000
1.000000 0.400000 0.700000 1.000000
1.000000 0.400000 0.700000 1.000000
1.000000 0.400000 0.700000 1.000000
1.000000 0.400000 0.700000 1.000000
1.000000 0.400000 0.700000 1.000000
1.000000 0.400000 0.700000 1.000000
1.000000 0.400000 0.700000 1.000000
1.000000 0.400000 0.700000 1.000000
1.000000 0.400000 0.700000 1.000000
1.000000 0.400000 0.700000 1.000000
1.000000 0.400000 0.700000 1.000000
1.000000 0.400000 0.700000 1.000000
1.000000 0.400000 0.700000 1.000000
1.000000 0.400000 0.700000 1.000000
1.000000 0.400000 0.700000 1.000000
1.000000 0.400000 0.700000 1.000000
1.000000 0.400000 0.700000 1.000000
1.000000 0.400000 0.700000 1.000000
1.000000 0.400000 0.700000 1.000000
1.000000 0.400000 0.700000 1.000000
1.000000 0.400000 0.700000 1.000000
1.000000 0.400000 0.700000 1.000000
1.000000 0.400000 0.700000 1.000000
1.000000 0.400000 0.700000 1.000000
1.000000 0.400000 0.700000 1.000000
1.000000 0.400000 0.700000 1.000000
1.000000 0.400000 0.700000 1.000000
1.000000 0.400000 0.700000 1.000000
1.000000 0.400000 0.700000 1.000000
1.000000 0.400000 0.700000 1.000000
1.000000 0.400000 0.700000 1.000000
1.000000 0.400000 0.700000 1.000000
1.000000 0.400000 0.700000 1.000000
1.000000 0.400000 0.700000 1.000000
1.000000 0.400000 0.700000 1.000000
1.000000 0.400000 0.700000 1.000000
1.000000 0.400000 0.700000 1.000000
1.000000 0.400000 0.700000 1.000000
1.000000 0.400000 0.700000 1.000000
1.000000 0.400000 0.700000 1.000000
1.000000 0.400000 0.700000 1.000000
1.000000 0.400000 0.700000 1.000000
1.000000 0.400000 0.700000 1.000000
1.000000 0.400000 0.700000 1.000000
1.000000 0.400000 0.700000 1.000000
1.000000 0.400000 0.700000 1.000000
1.000000 0.400000 0.700000 1.000000
1.000000 0.400000 0.700000 1.000000
1.000000 0.400000 0.700000 1.000000
1.000000 0.400000 0.700000 1.000000
1.000000 0.400000 0.700000 1.000000
1.000000 0.400000 0.700000 1.000000
1.000000 0.400000 0.700000 1.000000
1.000000 0.400000 0.700000 1.000000
1.000000 0.400000 0.700000 1.000000
1.000000 0.400000 0.700000 1.000000
1.000000 0.400000 0.700000 1.000000
1.000000 0.400000 0.700000 1.000000
1.000000 0.400000 0.700000 1.000000
1.000000 0.400000 0.700000 1.000000
1.000000 0.400000 0.700000 1.000000
1.000000 0.400000 0.700000 1.000000
1.000000 0.400000 0.700000 1.000000
1.000000 0.400000 0.700000 1.000000
1.000000 0.400000 0.700000 1.000000
1.000000 0.400000 0.700000 1.000000
1.000000 0.400000 0.700000 1.000000
1.000000 0.400000 0.700000 1.000000
1.000000 0.400000 0.700000 1.000000
1.000000 0.400000 0.700000 1.000000
1.000000 0.400000 0.700000 1.000000
1.000000 0.400000 0.700000 1.000000
1.000000 0.400000 0.700000 1.000000
1.000000 0.400000 0.700000 1.000000
1.000000 0.400000 0.700000 1.000000
1.000000 0.400000 0.700000 1.000000
1.000000 0.400000 0.700000 1.000000
1.000000 0.400000 0.700000 1.000000
1.000000 0.400000 0.700000 1.000000
1.000000 0.400000 0.700000 1.000000
1.000000 0.400000 0.700000 1.000000
1.000000 0.400000 0.700000 1.000000
1.000000 0.400000 0.700000 1.000000
1.000000 0.400000 0.700000 1.000000
1.000000 0.400000 0.700000 1.000000
1.000000 0.400000 0.700000 1.000000
1.000000 0.400000 0.700000 1.000000
1.000000 0.400000 0.700000 1.000000
1.000000 0.400000 0.700000 1.000000
1.000000 0.400000 0.700000 1.000000
1.000000 0.400000 0.700000 1.000000
1.000000 0.400000 0.700000 1.000000
1.000000 0.400000 0.700000 1.000000
1.000000 0.400000 0.700000 1.000000
1.000000 0.400000 0.700000 1.000000
1.000000 0.400000 0.700000 1.000000
1.000000 0.400000 0.700000 1.000000
1.000000 0.400000 0.700000 1.000000
1.000000 0.400000 0.700000 1.000000
1.000000 0.400000 0.700000 1.000000
1.000000 0.400000 0.700000 1.000000
1.000000 0.400000 0.700000 1.000000
1.000000 0.400000 0.700000 1.000000
1.000000 0.400000 0.700000 1.000000
1.000000 0.400000 0.700000 1.000000
1.000000 0.400000 0.700000 1.000000
1.000000 0.400000 0.700000 1.000000
1.000000 0.400000 0.700000 1.000000
1.000000 0.400000 0.700000 1.000000
1.000000 0.400000 0.700000 1.000000
1.000000 0.400000 0.700000 1.000000
1.000000 0.400000 0.700000 1.000000
1.000000 0.400000 0.700000 1.000000
1.000000 0.400000 0.700000 1.000000
1.000000 0.400000 0.700000 1.000000
1.000000 0.400000 0.700000 1.000000
1.000000 0.400000 0.700000 1.000000
1.000000 0.400000 0.700000 1.000000
1.000000 0.400000 0.700000 1.000000
1.000000 0.400000 0.700000 1.000000
1.000000 0.400000 0.700000 1.000000
1.000000 0.400000 0.700000 1.000000
1.000000 0.400000 0.700000 1.000000
1.000000 0.400000 0.700000 1.000000
1.000000 0.400000 0.700000 1.000000
1.000000 0.400000 0.700000 1.000000
1.000000 0.400000 0.700000 1.000000
1.000000 0.400000 0.700000 1.000000
1.000000 0.400000 0.700000 1.000000
1.000000 0.400000 0.700000 1.000000
1.000000 0.400000 0.700000 1.000000
1.000000 0.400000 0.700000 1.000000
1.000000 0.400000 0.700000 1.000000
1.000000 0.400000 0.700000 1.000000
1.000000 0.400000 0.700000 1.000000
1.000000 0.400000 0.700000 1.000000
1.000000 0.400000 0.700000 1.000000
1.000000 0.400000 0.700000 1.000000
1.000000 0.400000 0.700000 1.000000
1.000000 0.400000 0.700000 1.000000
1.000000 0.400000 0.700000 1.000000
1.000000 0.400000 0.700000 1.000000
1.000000 0.400000 0.700000 1.000000